7108
Atoms. Timestep: 0
1 0.388028 32.4409 19.762
1 28.9351 35.0413 19.1738
1 -0.325657 38.1657 18.7455
1 28.5417 8.02229 18.2807
1 -0.865586 11.2149 17.7586
1 27.9434 14.1565 17.2098
1 -1.40266 17.2239 16.6722
1 2.97055 32.3037 16.7438
1 6.04874 32.9039 19.5562
1 2.79954 35.7165 19.332
1 5.37713 38.5975 18.7149
1 2.4758 8.58036 18.1815
1 4.87035 11.8588 17.7023
1 1.69746 14.4592 17.2417
1 4.16788 17.4664 16.4389
1 8.83621 32.7494 16.6667
1 11.7463 33.4037 19.6656
1 8.62028 35.9907 19.0799
1 11.1979 6.7933 18.6228
1 8.15213 9.37679 18.0857
1 10.6156 12.2806 17.5103
1 7.42267 14.9429 16.7427
1 10.1723 18.0505 16.4132
1 17.6376 34.1481 19.3939
1 14.2388 36.7102 18.8938
1 16.9318 7.38379 18.6296
1 13.8294 9.88533 18.0306
1 16.6132 12.7922 17.3284
1 13.2624 15.6373 16.7414
1 22.9893 34.4987 19.3898
1 20.0738 37.2172 18.8642
1 22.7632 7.79989 18.4523
1 19.7566 10.4047 17.6853
1 22.477 13.5905 17.3587
1 19.2798 16.0166 17.0878
1 25.6539 37.6108 18.9244
1 25.5737 10.7475 17.6391
1 24.8269 16.6615 16.6538
1 -2.56113 32.8541 22.7398
1 -0.185876 35.9489 22.109
1 28.6845 38.3985 21.5811
1 -0.505375 9.06645 20.9801
1 28.4002 11.7242 20.7274
1 -1.12976 14.7796 20.0145
1 27.6411 17.3912 19.668
1 -1.71449 20.2639 19.148
1 27.5125 20.6935 22.0268
1 27.0121 22.7919 18.5982
1 -2.03712 26.0626 17.9414
1 -2.13871 23.7152 21.3075
1 27.0584 26.313 20.8717
1 26.6924 28.6622 17.447
1 -2.19746 29.3393 20.3471
1 5.77999 36.2222 22.1123
1 2.76577 38.8511 21.5675
1 5.21884 9.59846 20.8515
1 2.04632 11.9946 20.5554
1 4.54876 15.1514 20.0382
1 1.65307 17.8012 19.659
1 4.15644 20.8197 18.8869
1 1.14629 21.1823 21.7077
1 1.0523 23.5361 18.388
1 3.83224 26.5039 18.0335
1 3.85939 24.2798 20.9979
1 0.79662 26.8119 20.806
1 0.544969 29.2616 17.2524
1 3.42787 29.9268 20.2415
1 11.4266 36.6385 21.8069
1 8.40684 7.12751 21.151
1 11.1142 10.0121 20.9655
1 7.73613 12.6115 20.4052
1 10.4607 15.7817 19.5452
1 7.26606 18.3787 19.216
1 9.88026 21.3762 18.8105
1 6.99877 21.6226 21.6315
1 6.72748 23.8428 18.3935
1 9.39052 26.9183 17.8048
1 9.63378 24.8301 21.2538
1 6.7265 27.4274 20.7844
1 6.29465 29.6514 17.3787
1 9.17572 30.3462 20.1782
1 14.4338 34.2392 22.1451
1 17.1471 37.1224 21.6907
1 14.0743 7.48159 21.2704
1 16.9351 10.5471 20.7445
1 13.5694 13.1507 20.2752
1 16.0956 16.3404 19.7181
1 12.7697 18.9734 19.2346
1 15.413 21.9419 18.9145
1 15.8552 19.4648 22.1441
1 12.4399 22.1212 21.6447
1 12.5355 24.5121 18.2185
1 14.9004 27.6881 18.0858
1 15.282 25.4587 21.0952
1 12.2692 27.8114 20.5795
1 11.8324 30.1572 17.4188
1 14.8092 30.9323 19.8773
1 20.2874 34.8666 22.2601
1 22.9562 37.9793 21.7441
1 19.7375 8.00103 21.2231
1 22.5064 11.0313 20.6489
1 19.4763 13.5932 19.9953
1 21.9238 16.6304 19.7527
1 18.6338 19.4408 19.0795
1 21.3271 22.4149 18.8952
1 21.6498 20.0755 22.1176
1 18.5406 22.7154 21.6236
1 18.2905 25.1096 18.2977
1 20.929 28.1993 17.8123
1 21.0968 25.8711 21.1078
1 17.974 28.377 20.6405
1 17.6969 30.7653 17.13
1 20.6369 31.4971 19.8591
1 26.1885 35.3126 22.2182
1 25.7064 8.65093 21.2395
1 25.0124 14.1419 20.0827
1 24.6061 19.7483 19.1615
1 24.1217 23.0374 21.4883
1 23.9595 25.5014 18.1157
1 23.8257 28.9056 20.5244
1 23.5388 31.1292 17.1118
1 26.3169 31.9679 19.7862
1 29.2133 28.6637 -0.125584
1 0.223941 29.4668 2.57368
1 29.1536 31.9338 2.13543
1 -0.50864 35.1822 1.41372
1 28.3706 37.7314 0.841162
1 -1.00466 8.33259 0.619633
1 27.6564 11.0349 0.142582
1 -1.35034 14.251 -0.524658
1 3.20437 29.3854 -0.213877
1 5.7542 29.7142 2.53333
1 2.81629 32.4313 1.93014
1 5.08723 35.5857 1.51446
1 2.22927 38.1585 1.25691
1 4.71982 8.67198 0.667803
1 1.64194 11.5337 -0.168781
1 4.20855 14.3928 -0.781091
5 8.61158 29.8449 -0.330126
1 11.714 30.4652 2.26892
1 8.53041 32.9669 2.08763
1 11.0739 36.0907 1.31739
1 7.92599 38.5676 1.08073
1 10.4716 9.51957 0.640697
1 7.4135 11.9208 -0.476137
5 9.8486 15.0909 -0.420224
1 17.4084 30.7926 2.38653
1 14.2164 33.289 1.75351
1 16.8004 36.5004 1.34879
1 13.4901 6.80612 1.01924
1 16.2419 9.79711 0.841984
1 12.9149 12.4726 0.0676821
1 23.055 31.3275 1.79441
1 19.6788 34.0097 1.84314
1 22.6134 37.0375 1.13783
1 19.7054 7.09054 0.730817
1 21.9218 10.2206 0.156079
1 18.7729 12.8022 -0.36569
1 25.7244 34.7067 1.52359
1 25.4381 7.70856 0.681256
1 24.7792 13.3832 -0.480245
1 29.2532 29.6471 5.57807
1 -0.234487 32.6429 4.86205
1 0.096148 30.4817 8.28845
1 28.8364 32.8013 7.67132
1 28.5395 35.3778 4.3515
1 -0.696485 38.3942 4.03453
1 -0.562507 36.1597 7.24908
1 28.256 6.47665 6.7601
1 28.1434 8.59201 3.44841
1 -1.16096 11.6575 2.96702
1 -1.01293 9.43337 6.31758
1 27.9655 12.0839 5.84979
1 27.7357 14.0869 2.36034
1 -1.78636 17.4419 2.01183
1 -1.32483 15.1877 5.16199
1 27.1032 17.4712 4.92868
1 27.1227 19.9423 1.54287
1 -2.35875 22.7971 0.744454
1 -2.17307 20.7069 4.43913
1 26.7932 23.2924 3.66933
1 26.7617 25.4907 0.110273
1 -2.48812 26.287 2.93786
1 2.95508 30.1896 5.45851
1 5.50109 33.3109 4.86832
1 5.91638 31.0769 8.29406
1 2.50482 33.4279 7.673
1 2.26982 35.8195 4.34689
1 5.08055 38.6315 3.97018
1 5.30792 36.379 7.16785
1 2.21575 6.92104 6.86876
1 1.95037 9.05581 3.38337
1 4.53004 12.1244 2.69097
1 4.79669 9.7579 6.35015
1 1.61122 12.3783 5.83522
1 1.3702 14.6948 2.05775
1 4.20898 17.6788 1.64252
1 4.144 15.4332 4.96654
1 1.18425 18.2794 4.48319
1 1.02121 20.4118 1.21224
1 3.701 23.407 0.81287
1 3.67984 21.0322 4.0674
1 0.778191 23.7314 3.43225
1 0.411797 25.9877 0.441778
1 3.16435 26.8718 3.33622
1 8.6945 30.7685 5.24723
1 11.2288 33.7824 4.7985
1 11.6631 31.4205 8.36256
1 8.39598 34.0538 7.73003
1 8.09007 36.3656 4.24717
1 10.5951 6.83634 3.91211
1 11.0883 37.0296 7.1144
1 7.83404 7.20508 6.83716
1 7.67185 9.44374 3.42674
1 10.1252 12.549 2.91276
1 10.4543 10.2878 6.25762
1 7.41167 12.8434 5.58093
1 7.02158 15.0732 2.18017
1 9.8309 18.2523 1.85081
1 9.85276 16.0582 5.1757
1 6.82545 18.4789 4.61027
1 6.80891 20.8673 1.44685
1 9.41777 23.9767 0.498189
1 9.66752 21.7602 4.12969
1 6.38754 24.3603 3.74112
1 6.12186 26.6385 0.508657
1 9.11492 27.3404 2.98069
1 14.4515 31.0394 5.02148
1 17.2024 34.1236 4.59873
1 17.4621 31.7812 8.07329
1 14.3028 34.2621 7.6161
1 13.9676 36.6781 4.33364
1 16.4634 7.4452 3.76988
1 16.8119 37.6185 7.09438
1 13.5205 7.79563 6.44958
1 13.4174 10.126 3.35592
1 16.1083 13.1147 2.81099
1 16.3243 10.8008 6.19598
1 13.1694 13.3179 5.69935
1 12.7428 15.8518 2.51217
1 15.4791 18.9965 1.78082
1 15.5114 16.2806 5.05775
1 12.5308 19.1431 4.84197
1 12.4886 21.5553 1.1862
1 14.9001 24.5731 0.749253
1 15.1774 22.2459 3.89559
1 12.1039 24.6185 3.4963
1 11.8108 27.1148 -0.227945
1 14.6357 27.7192 2.96154
1 20.1282 31.8803 5.10456
1 22.8466 34.7693 4.35023
1 23.1344 32.5682 7.99038
1 20.0347 35.0716 7.26584
1 19.6104 37.2548 4.04025
1 22.5561 7.85914 3.39658
1 22.6909 38.2237 6.874
1 19.473 8.43734 6.40649
1 19.1377 10.5364 3.11279
1 21.7808 13.8096 2.40145
1 22.0121 11.423 5.90729
1 18.8568 13.9817 5.3265
1 18.4913 16.3623 2.11191
1 21.1878 19.2525 1.44645
1 21.5427 16.9479 4.92875
1 18.5216 19.622 4.36128
1 18.1728 21.9913 1.26659
1 20.9647 24.9445 0.741334
1 21.2724 22.4564 3.93566
1 18.0452 25.1423 3.45815
1 17.7838 27.7677 0.176979
1 20.6786 28.4422 2.85998
1 25.9114 32.1823 4.80941
1 25.7655 35.6622 7.42416
1 25.5837 37.8381 3.8778
1 25.001 8.89073 6.17631
1 24.9053 11.2549 2.83648
1 24.7233 14.4885 5.09146
1 24.4425 16.7438 1.94271
1 24.1256 20.0572 4.318
1 23.9755 22.2749 0.967409
1 23.7345 25.6769 3.22663
1 23.4999 27.9621 -0.0604676
1 26.1918 28.9631 2.65942
1 28.9858 30.7001 10.9369
1 -0.211732 33.6973 10.633
1 0.0414671 31.3936 13.7693
1 28.8266 34.0175 13.4396
1 28.6481 36.4497 10.0555
1 -0.587156 6.84637 9.6604
1 -0.449146 36.9872 13.1309
1 28.2616 7.03363 12.5958
1 27.9993 9.46222 9.2681
1 -1.03954 12.5719 8.56267
1 -0.936445 10.1709 11.8893
1 28.0293 12.8005 11.7049
1 27.6419 15.2944 8.11983
1 -1.63962 18.2416 7.62614
1 -1.34441 15.7171 10.8188
1 27.3221 18.5171 10.4949
1 26.889 21.0188 7.13185
1 -2.19946 24.1943 6.39868
1 -2.28072 21.6048 10.0331
1 26.5907 24.4261 9.37191
1 26.4742 26.772 6.04781
1 -2.56185 27.2415 8.92614
1 3.0408 31.0599 11.2547
1 5.5562 34.3382 10.6115
1 6.07358 31.8263 14.0295
1 2.554 34.4967 13.4038
1 2.38799 36.826 10.235
1 5.2511 7.4394 9.55255
1 5.61506 37.623 13.2595
1 2.39923 7.75875 12.5117
1 2.07668 9.8725 9.26435
1 4.65194 13.1904 8.37651
1 4.93669 10.7028 11.8871
1 1.83814 13.2667 11.5941
1 1.52306 15.7181 8.12008
1 4.15279 18.7498 7.63863
1 4.22559 16.2892 10.8023
1 1.13173 18.9721 10.4511
1 0.964384 21.2726 7.03365
1 3.54612 24.4939 6.42835
1 3.4548 22.0899 9.72723
1 0.539885 24.6345 9.37934
1 0.334938 26.9935 5.87346
1 3.12869 27.8105 8.92923
1 8.66234 31.5662 11.1624
1 11.4863 34.6345 10.5618
1 11.6795 32.3564 13.7899
1 8.69448 34.9924 13.2893
1 8.17253 37.1301 10.1356
1 10.7038 7.86899 9.3107
1 11.2644 38.1476 12.7077
1 8.11413 8.18346 12.3907
1 7.73015 10.6345 9.01831
1 10.2706 13.7162 8.4119
1 10.433 11.3864 11.7818
1 7.43678 13.7762 11.332
1 7.06732 16.1005 7.80218
1 9.66556 19.3895 7.53013
1 9.85123 16.9385 10.8021
1 6.86662 19.5751 10.2454
1 6.6173 21.9855 7.02904
1 9.28154 25.036 6.50522
1 9.31782 22.7028 9.86319
1 6.32659 25.2172 9.42236
1 6.1066 27.6624 5.95139
1 8.78978 28.3251 8.81974
1 14.4547 32.1972 10.9638
1 17.2515 35.2241 10.1516
1 17.3049 33.1322 13.7182
1 14.346 35.6645 13.1451
1 14.1498 37.6577 9.89945
1 16.7854 8.47057 9.29991
1 16.9876 38.8377 12.8898
1 13.7066 8.6802 12.0329
1 13.6008 10.9494 8.94445
1 16.2385 14.1143 8.58966
1 16.373 12.1464 11.8429
1 13.1115 14.4531 11.2261
1 13.0328 16.8 7.98732
1 15.5086 19.8461 7.44139
1 15.8307 17.5781 10.783
1 12.4753 20.2581 10.4534
1 12.4772 22.3342 7.09622
1 14.9988 25.3624 6.40048
1 15.1258 23.3245 9.77497
1 12.1999 25.8986 9.06835
1 11.8375 28.1142 5.79753
1 14.7166 28.7477 8.41302
1 20.3583 32.8536 10.8946
1 22.9805 36.0022 10.1806
1 23.258 33.3984 13.7952
1 20.0843 36.1361 13.0753
1 19.7627 38.4545 9.68447
1 22.3396 9.18369 9.36538
1 22.639 6.68555 12.5433
1 19.4835 9.4486 12.094
1 19.2938 11.7375 9.01186
1 21.7589 14.926 8.31173
1 22.2182 12.4779 11.7318
1 19.0089 15.133 11.3283
1 18.5587 17.148 7.99348
1 21.2061 20.2818 7.27357
1 21.5187 18.2171 10.5274
1 18.4308 20.7521 10.0372
1 18.1805 22.8407 6.98025
1 20.8224 26.1443 6.06709
1 20.8665 23.8366 9.56089
1 17.9176 26.2045 9.08351
1 17.5557 28.5557 5.69696
1 20.5231 29.3204 8.51654
1 26.0151 33.2212 10.7165
1 25.7274 36.6243 13.1608
1 25.4619 6.50249 9.68022
1 25.2972 9.74697 12.0105
1 25.1086 12.0464 8.39048
1 24.7475 15.5301 11.082
1 24.4755 17.8122 7.70114
1 23.943 21.1764 9.92009
1 23.7718 23.6217 6.78012
1 23.4535 26.9925 8.96497
1 23.2862 29.1981 5.43841
1 26.2686 29.8615 8.3693
1 -2.56453 31.674 17.037
1 -0.0660323 34.7534 16.2497
1 28.7587 37.3595 16.014
1 -0.419345 7.95462 15.2928
1 28.2835 10.3015 15.0639
1 -1.06413 13.6886 14.4519
1 27.7789 16.2169 13.7442
1 -1.69385 19.503 13.2454
1 27.441 19.6271 16.1477
1 26.9796 21.9585 12.8577
1 -2.27861 24.9418 12.3378
1 -1.89669 22.7181 15.7857
1 26.9145 25.1404 15.3586
1 26.6084 27.5805 12.0272
1 -2.47383 28.3399 14.6217
1 5.68105 35.0333 16.2438
1 2.59942 37.9061 15.7486
1 5.27648 8.54275 15.3152
1 2.08283 11.0491 14.9345
1 4.62947 14.1045 14.2401
1 1.34012 16.6635 13.7849
1 4.0532 19.6889 13.1887
1 1.21846 20.0343 15.8219
1 0.857338 22.4874 12.6831
1 3.33862 25.518 12.2719
1 3.79815 23.2076 15.443
1 0.861119 25.9302 15.1464
1 0.472719 28.1723 11.7725
1 3.29953 28.8062 14.6479
1 11.4248 35.7057 16.1324
1 8.23317 38.334 15.7361
1 11.049 9.02813 15.0217
1 7.84534 11.5763 14.6814
1 10.3046 14.6472 13.9876
1 7.12822 17.3133 13.47
1 9.63247 20.4308 13.1654
1 6.75383 20.5427 15.9403
1 6.44682 23.0345 12.7507
1 9.31284 26.0094 11.9247
1 9.56545 23.6666 15.5174
1 6.36681 26.1498 15.0683
1 5.92955 28.5165 11.6272
1 8.97884 29.319 14.4572
1 14.4158 33.3141 16.6417
1 16.9686 36.353 16.0691
1 13.992 6.55844 15.5956
1 16.7023 9.51833 15.0032
1 13.7249 12.1215 14.5947
1 16.1933 15.1982 14.0671
1 12.9256 17.7621 13.4975
1 15.4022 20.8299 12.9233
1 15.7982 18.634 16.3078
1 12.67 21.0845 15.9039
1 12.2833 23.5799 12.7066
1 14.961 26.5085 11.9911
1 15.3734 24.3724 15.4194
1 12.102 26.7296 15.0148
1 11.7731 29.0544 11.5597
1 14.9657 30.0278 14.2982
1 20.2327 33.8853 16.5758
1 22.8136 36.8474 15.8854
1 19.7527 6.93475 15.6053
1 22.4323 10.325 14.9138
1 19.331 12.6271 14.5675
1 21.956 16.0427 13.968
1 18.8994 18.4289 13.4131
1 21.2692 21.6076 12.9261
1 21.7095 19.4402 16.4099
1 18.5477 21.7836 15.9304
1 18.1565 23.8696 12.5883
1 20.9271 27.0853 11.8576
1 20.9942 24.9086 15.3029
1 17.8545 27.4301 14.9573
1 17.6725 29.6832 11.5306
1 20.3847 30.4661 14.393
1 26.0411 34.4327 16.3694
1 25.3133 7.42129 15.3218
1 25.2021 13.3954 14.358
1 24.4703 18.8763 13.2857
1 24.3952 22.1014 15.7813
1 24.1373 24.494 12.5251
1 23.546 27.7645 14.6983
1 23.4649 30.1746 11.2778
1 26.448 31.0778 14.152
1 0.195964 33.6034 25.2601
1 28.8907 36.2736 24.9185
1 -0.0728177 6.75048 24.322
1 28.6399 9.29807 23.8394
1 -0.625193 12.6831 23.4423
1 28.0418 15.0437 22.9078
1 -1.19661 18.168 22.3622
1 3.20107 33.2408 22.5802
1 5.87758 33.9423 25.3909
1 2.8662 36.4718 24.7871
1 5.58863 7.17946 24.3218
1 2.44782 9.83798 23.8882
1 4.90144 12.8094 23.3627
1 1.94705 15.4932 22.8772
1 4.35186 18.798 22.2785
1 8.96606 33.6903 22.51
1 11.8669 34.43 25.2074
1 8.67244 37.0635 24.8538
1 11.2754 7.66725 24.1744
1 8.25738 10.3687 23.7818
1 10.6316 13.3642 23.0493
1 7.64947 15.9892 22.4154
1 9.99162 18.9106 22.2766
1 17.4366 35.016 25.2025
1 14.3214 37.5092 24.5785
1 16.8978 8.31624 24.1376
1 13.9954 10.8217 23.5383
1 16.5972 13.9882 22.9388
1 13.2102 16.4404 22.6426
1 23.0584 35.7163 25.1033
1 19.9512 38.2588 24.5095
1 22.779 8.83986 24.0159
1 19.4048 11.503 23.5896
1 22.0953 14.5757 22.9377
1 18.9902 17.203 22.4737
1 25.9698 38.7819 24.4868
1 25.602 11.9649 23.482
1 24.8621 17.4717 22.6081
1 29.207 33.8967 28.3972
1 -0.191499 36.9875 27.6476
1 0.338428 34.6896 30.9323
1 29.0528 37.1449 30.5874
1 28.8366 7.30647 27.3237
1 -0.651799 10.1753 26.5699
1 -0.385589 7.87699 30.0337
1 28.424 10.4076 29.4616
1 28.4547 12.8568 26.4048
1 -1.11509 16.2207 25.6531
1 -0.97346 13.6738 29.1832
1 27.9637 16.1794 28.7671
1 27.7725 18.5211 25.2625
1 -1.40379 21.512 24.8289
1 -1.32289 19.1615 27.923
1 27.78 21.9667 27.7903
1 26.9407 24.2159 24.2481
1 -2.29686 27.0315 23.5567
1 -1.98045 24.8799 26.9903
1 26.8365 27.6309 26.8066
1 26.657 29.8022 23.3131
1 -2.24665 30.4228 25.8681
1 3.11058 34.4493 28.202
1 5.71952 37.4294 27.7343
1 6.27687 35.2294 31.1147
1 2.7698 37.8554 30.514
1 2.54335 7.6533 27.0177
1 5.24245 10.761 26.5678
1 5.44906 8.36044 30.1425
1 2.21568 10.8315 29.4321
1 2.19797 13.4307 26.2065
1 4.58047 16.3173 25.6851
1 4.88016 14.0876 28.9373
1 1.57073 16.7709 28.5212
1 1.56196 18.9193 25.0557
1 4.23866 22.0244 24.4228
1 4.30603 19.6679 28.0095
1 1.39063 22.396 27.4344
1 1.23187 24.5888 24.0537
1 3.6274 27.6208 23.7102
1 3.92364 25.2667 26.8914
1 0.712093 27.9758 26.566
1 0.37799 30.3111 22.9087
1 3.33163 31.1927 25.9961
1 9.0327 34.6908 28.1478
1 11.6053 37.95 27.5881
1 11.9262 35.8452 30.6859
1 8.64432 38.1497 30.4098
1 8.30609 8.14197 27.1359
1 11.2147 11.2089 26.3848
1 11.2618 8.94637 29.8177
1 7.91876 11.4385 29.3621
1 8.04161 13.6695 25.9468
1 10.4409 16.5862 25.4862
1 10.6622 14.5339 28.9029
1 7.37592 17.0719 28.3304
1 7.21265 19.4077 25.1309
1 9.84511 22.3216 24.6206
1 10.0344 20.0839 27.9775
1 7.16051 22.6618 27.4732
1 6.83413 25.0034 24.1206
1 9.56763 27.9508 23.6476
1 9.60914 25.7306 26.9349
1 6.43954 28.315 26.5798
1 6.25504 30.5081 23.1475
1 8.93323 31.4714 25.7999
1 14.6892 35.5069 27.9161
1 17.4682 38.3799 27.4213
1 17.577 36.072 30.8347
1 14.3608 38.682 30.2988
1 13.9774 8.71917 26.9614
1 16.803 11.5923 26.4346
1 16.9885 9.26473 29.8281
1 13.8337 11.9743 29.5834
1 13.6004 14.1577 25.8728
1 16.2704 17.2839 25.5519
1 16.4859 14.8883 28.7775
1 13.4278 17.6445 28.1048
1 12.8563 19.9145 25.1031
1 15.7105 22.8239 24.399
1 15.7847 20.4554 27.6867
1 12.7421 23.2932 27.1868
1 12.5008 25.4647 23.9037
1 15.2247 28.6993 23.5924
1 15.2365 26.2163 26.836
1 12.2864 28.8365 26.4351
1 12.1237 30.9603 23.2443
1 15.0274 32.0968 25.6926
1 20.4061 35.8428 27.9367
1 23.0262 6.50423 27.1898
1 23.4308 36.5661 30.7254
1 20.0027 6.65122 30.1725
1 19.8483 9.26276 26.6753
1 22.4142 12.4359 26.3366
1 22.7532 9.9251 29.5463
1 19.6107 12.2867 29.3204
1 19.2692 14.9297 25.9278
1 22.0594 17.8428 25.5999
1 22.376 15.5411 28.8081
1 19.1961 18.0826 28.2906
1 18.8517 20.3423 25.0052
1 21.3945 23.6091 24.4969
1 21.7209 21.2889 27.7848
1 18.7399 23.8372 27.3051
1 18.4414 25.9519 23.7839
1 20.7858 29.3035 23.4305
1 21.1501 27.0077 26.7081
1 17.8397 29.337 26.0013
1 17.6529 31.8595 22.7583
1 20.5914 32.649 25.6334
1 26.1835 36.3574 27.9008
1 25.8756 7.35972 30.0252
1 25.5918 9.7156 26.6625
1 25.3306 13.0316 28.9408
1 25.2753 15.2837 25.7993
1 24.8381 18.7541 28.204
1 24.6569 21.0501 24.6992
1 24.1844 24.2932 27.1693
1 24.0106 26.6531 23.9734
1 23.8966 30.0097 26.2461
1 23.5468 32.467 22.6489
1 26.519 33.1565 25.5563
1 -2.55173 34.8892 33.8736
1 0.0521329 37.8636 33.3973
1 0.431759 35.6862 36.6641
1 28.9476 38.2823 36.3213
1 28.862 8.09663 33.1155
1 -0.545526 11.2474 32.2845
1 -0.434595 8.90892 35.6731
1 28.429 11.4391 35.2655
1 28.3031 13.8367 31.9125
1 -1.10855 17.0947 31.5816
1 -0.677747 14.5747 34.5795
1 27.9081 16.8668 34.4186
1 27.5609 19.3271 30.9468
1 -1.66952 22.458 30.5384
1 -1.21833 20.0688 33.7447
1 27.4568 22.8718 33.4714
1 27.0627 25.1691 30.1846
1 -2.07714 28.2147 29.6206
1 -1.83478 25.9714 32.8347
1 27.2084 28.4944 32.5281
1 26.7385 30.942 29.3025
1 -2.34234 31.6055 31.9831
1 3.27942 35.4238 33.868
1 5.66497 38.8318 33.3429
1 6.19457 36.3618 36.7234
1 3.04946 38.6932 36.2
1 2.48071 8.71844 32.9807
1 5.07689 11.7176 32.3467
1 5.35597 9.60241 35.6636
1 2.39515 11.9947 35.1613
1 2.07331 14.3105 31.7469
1 4.69676 17.4167 31.1729
1 4.73766 15.1187 34.4627
1 1.8301 17.8117 34.1961
1 1.4883 20.1581 30.6724
1 4.20661 22.9765 30.3863
1 4.33307 20.83 33.5741
1 1.2488 23.311 33.0176
1 0.824845 25.6865 29.7072
1 3.54372 28.7255 29.3881
1 3.89504 26.2454 32.4819
1 0.835989 28.9886 32.3444
1 0.388761 31.0804 28.7252
1 3.38975 32.0968 31.6799
1 9.07913 35.9164 33.7492
1 11.7183 6.75993 33.0593
1 11.8529 36.6944 36.734
1 8.63844 6.89935 36.0429
1 8.40868 9.09132 32.7862
1 11.0442 12.1566 32.23
1 11.3125 10.0244 35.4645
1 8.1807 12.7546 34.9544
1 7.64804 14.582 31.7088
1 10.5576 17.9054 31.0825
1 10.6218 15.551 34.3184
1 7.56439 18.1052 33.9631
1 7.49228 20.2044 30.9072
1 9.9695 23.4343 30.2132
1 10.1219 21.2211 33.4222
1 7.24241 23.6794 33.1528
1 6.48614 26.1489 29.8371
1 9.24755 29.1269 29.1281
1 9.62623 26.8825 32.7398
1 6.39062 29.7461 31.9252
1 6.20877 31.6622 28.9413
1 9.21414 32.7689 31.4559
1 14.8092 36.384 33.7048
1 17.2463 6.97062 33.1243
1 17.8006 37.0913 36.4596
1 14.4245 7.16792 36.0844
1 14.2339 9.7456 32.7502
1 16.7515 12.8095 32.3105
1 17.1427 10.3502 35.4846
1 13.9977 13.0143 34.9899
1 13.5072 15.2867 31.5949
1 16.1899 18.2016 31.2027
1 16.3192 16.1313 34.4833
1 13.3131 18.5588 33.9619
1 13.0171 20.9424 30.5973
1 15.5836 24.2264 30.042
1 16.031 21.7332 33.6198
1 12.8263 24.2965 33.147
1 12.3926 26.5549 29.6716
1 15.0883 29.928 29.1467
1 15.4122 27.4727 32.3165
1 12.1789 30.0629 31.904
1 11.9457 32.3065 28.4949
1 15.0615 33.1766 31.311
1 20.4562 36.9447 33.6225
1 22.9473 7.58681 32.7391
1 23.3398 37.5907 36.3528
1 20.1894 7.82147 35.9891
1 20.0279 10.3283 32.6966
1 22.5008 13.0936 31.9681
1 22.6221 10.9244 35.2034
1 19.6157 13.618 34.8415
1 19.3896 15.7242 31.5786
1 21.986 18.8049 30.9945
1 22.3215 16.4877 34.3035
1 19.1353 19.1091 33.7045
1 18.8552 21.4812 30.6005
1 21.3697 24.5952 30.0673
1 21.5162 22.3347 33.3857
1 18.5161 24.9155 32.8192
1 18.0936 27.2588 29.4181
1 20.853 30.4585 28.9604
1 21.5914 27.9177 32.2358
1 18.1548 30.512 31.8161
1 17.8095 32.8619 28.4959
1 20.8765 33.4838 31.4522
1 26.1026 37.39 33.6132
1 25.6127 8.23261 35.9858
1 25.7793 10.4936 32.4511
1 25.39 13.8513 34.7786
1 24.9404 16.2998 31.5347
1 24.7591 19.691 33.7631
1 24.5798 22.1239 30.4518
1 24.2291 25.4147 32.9138
1 24.2985 27.5732 29.5357
1 23.8335 30.735 32.0123
1 23.8415 33.1085 28.263
1 26.3081 34.0082 31.4123
1 0.0471928 38.7337 38.9291
1 28.6424 9.11361 38.806
1 -0.464849 12.2424 37.9092
1 28.5671 14.5238 37.6956
1 -0.990646 17.8194 37.1441
1 27.7033 20.3354 36.5234
1 -1.47508 23.4537 36.1542
1 27.5115 23.9946 38.8459
1 27.0926 26.1211 35.8222
1 -1.84814 29.298 35.2325
1 -1.81985 26.7902 38.2902
1 27.0567 29.5118 38.2472
1 26.5733 31.8669 34.8665
1 -2.25771 32.5426 37.4737
1 5.53179 6.98029 38.9626
1 2.78702 9.82378 38.3913
1 5.36458 12.8202 38.2544
1 2.4563 15.4898 37.1913
1 5.02201 18.6734 37.0058
1 1.4181 21.2397 36.8158
1 4.42184 23.988 36.1183
1 1.26482 24.0704 39.2463
1 1.29821 26.5896 35.7286
1 4.00585 29.6106 34.9743
1 3.73071 27.4269 38.3448
1 0.815756 30.2213 38.0624
1 0.669581 32.4325 34.5979
1 3.56679 33.0583 37.1968
1 11.466 7.6886 38.7476
1 8.50377 10.259 38.4011
1 10.9304 13.383 37.7468
1 7.99014 15.8867 37.5082
1 10.5737 19.2479 36.9758
1 7.3204 21.5932 36.4546
1 9.91881 24.6107 35.8902
1 7.10678 25.1206 38.9261
1 6.81428 27.0221 35.3161
1 9.45781 30.3042 34.86
1 9.41366 27.9894 38.4322
1 6.47503 30.6456 37.9004
1 6.44869 32.7582 34.5086
1 9.33854 33.792 37.0107
5 15.064 37.2161 39.1759
1 17.5056 8.11776 38.6787
1 14.2346 10.7593 38.4025
1 16.7844 13.7949 37.8247
1 13.6365 16.4096 37.3715
1 16.1382 19.5421 36.7753
1 13.0381 21.8667 36.2981
1 15.4912 25.181 35.6392
5 15.8068 22.8692 39.2342
1 12.782 25.613 38.7671
1 12.3117 27.6863 35.3734
1 15.2819 30.7273 34.6602
1 15.5658 28.5791 38.0526
1 12.2532 31.0215 37.7611
1 12.2429 33.3814 34.2905
1 14.9028 33.9838 36.8504
1 20.5744 37.8643 39.4408
1 23.0194 8.44398 38.655
1 19.9387 11.3152 38.4516
1 22.5119 14.2991 37.9593
1 19.3464 16.9203 37.1057
1 22.1376 19.8083 36.6873
1 18.8075 22.7149 36.4081
1 21.2717 25.8363 35.6381
1 21.5167 23.2572 39.0008
1 18.5862 26.1082 38.3828
1 18.3944 28.3069 34.9645
1 20.9753 31.2208 34.5301
1 21.235 29.0738 38.0488
1 17.9889 31.6027 37.5901
1 17.8761 33.8016 34.0348
1 20.836 34.7629 37.0901
1 26.1227 38.2896 39.2109
1 25.6235 11.5754 38.1118
1 25.1816 17.1092 37.2264
1 24.3238 22.9533 36.1301
1 24.1713 26.2874 38.6779
1 24.3382 28.5824 35.3475
1 23.7618 32.1656 37.7987
1 23.5699 34.1047 34.3776
1 26.5137 35.2444 37.1695
2 0.158957 31.9752 16.9846
2 28.8748 35.6442 22.0556
2 -0.137351 38.6549 21.4386
2 28.5929 8.8183 21.1107
2 -0.686401 11.7614 20.5021
2 28.1005 14.5385 20.0757
2 -1.42313 17.6303 19.5999
2 3.15226 32.8221 19.669
2 6.0464 32.3911 16.7793
2 2.85244 36.0398 22.0651
2 5.47085 6.53924 21.59
2 2.34864 9.25013 20.9545
2 4.94991 12.3697 20.5112
2 1.8087 14.9076 20.1296
2 4.30757 18.0854 19.5073
2 8.8935 33.1245 19.7155
2 11.5945 32.9946 16.7139
2 8.67258 36.4343 21.8661
2 11.1824 7.15524 21.2096
2 8.05939 9.81472 20.845
2 10.8233 12.8816 20.3639
2 7.52755 15.3977 19.7529
2 10.0862 18.5508 19.1664
2 17.3826 34.4985 22.2893
2 14.2598 36.9882 21.5299
2 16.8641 7.81789 21.3501
2 13.8415 10.2839 20.7206
2 16.4171 13.4539 20.1022
2 13.2091 15.8636 19.8357
2 23.092 35.1248 22.2727
2 19.9744 37.6898 21.5764
2 22.7768 8.34551 21.1691
2 19.6912 10.804 20.6985
2 22.1351 14.0205 20.1678
2 18.971 16.3899 19.8038
2 25.7405 38.3801 21.864
2 25.5035 11.4828 20.5297
2 24.8403 17.0273 19.8195
2 29.1894 32.2689 19.885
2 -0.0213063 35.3245 19.3919
2 28.6429 37.8251 18.8652
2 -0.481686 8.45265 18.1674
2 28.3395 10.8117 17.7773
2 -1.11374 14.044 17.2706
2 27.7132 16.8419 16.7316
2 -1.50619 20.791 21.9602
2 27.4217 19.9734 18.8785
2 26.998 23.312 21.3275
2 -1.98528 26.4525 20.9923
2 -2.03498 23.333 18.6042
2 27.0118 25.7391 18.0069
2 26.6914 29.1455 20.5182
2 -2.33874 28.8775 17.3774
2 5.64363 35.777 19.0253
2 2.50512 38.4181 18.6974
2 5.35357 9.14445 18.0061
2 2.17692 11.5017 17.7198
2 4.56365 14.5816 16.9678
2 1.33939 17.1589 16.6593
2 4.28303 21.7132 21.7639
2 1.38276 20.6727 18.797
2 1.00686 23.9378 21.1296
2 3.80235 27.037 20.7942
2 3.95554 23.7052 18.2601
2 0.945771 26.4041 17.8608
2 0.531136 29.6094 20.1462
2 3.30482 29.4326 17.4554
2 11.3887 36.1864 19.0933
2 8.35098 38.8476 18.5567
2 10.981 9.61168 18.2029
2 7.77686 12.0465 17.5195
2 10.3725 15.1093 16.6379
2 7.02421 17.7325 16.4113
2 9.85868 21.5783 21.615
2 7.05145 21.0892 18.9606
2 6.78367 24.5842 21.1596
2 9.56533 27.5788 20.6957
2 9.72236 24.1951 18.4482
2 6.50778 26.7652 17.7484
2 6.19698 30.1796 20.3769
2 9.10572 29.7848 17.3032
2 14.5866 33.923 19.4189
2 17.0697 36.8388 18.9426
2 14.054 7.06999 18.3201
2 16.8643 10.1305 17.9176
2 13.8577 12.7249 17.3721
2 15.9894 16.052 16.7816
2 12.9877 19.2506 22.1964
2 15.4811 22.4954 21.5822
2 15.7452 19.1042 19.2749
2 12.5782 21.8106 18.7496
2 12.5142 24.9597 21.0676
2 15.262 28.1605 20.5716
2 15.1935 24.8131 18.3599
2 12.0475 27.3268 17.8278
2 11.9633 30.5973 20.2238
2 14.7283 30.3455 17.1746
2 20.2948 34.4739 19.4142
2 22.961 37.3384 18.956
2 19.874 7.53821 18.4145
2 22.6409 10.6138 17.7828
2 19.4193 13.1377 17.3472
2 22.0998 16.3533 16.8708
2 18.6829 19.8646 22.1259
2 21.2923 23.0115 21.7866
2 21.5627 19.6664 19.2086
2 18.4862 22.31 18.8365
2 18.2337 25.5132 21.0843
2 20.8217 28.5797 20.7164
2 21.1911 25.3368 18.3547
2 17.8343 27.9607 17.8203
2 17.681 31.2065 20.0109
2 20.6528 30.959 17.1627
2 26.1733 34.8497 19.4081
2 25.691 7.96748 18.3004
2 25.2606 13.9088 17.0984
2 24.4987 20.2515 22.0024
2 24.2313 22.5796 18.5979
2 24.0538 25.8906 21.1722
2 23.987 28.3218 17.7305
2 23.323 31.676 19.8595
2 26.2592 31.471 16.9079
2 0.155498 28.8928 -0.640641
2 0.0143361 32.2559 1.96745
2 29.1021 29.0746 2.75114
2 -0.635862 38.0471 1.11077
2 28.7012 34.6273 1.37735
2 -1.41888 11.5034 0.0374362
2 28.0896 8.19286 0.446881
2 27.6127 13.7815 -0.38554
2 5.88826 29.4239 -0.253497
2 5.65541 32.6727 1.90133
2 3.00539 29.7585 2.67377
2 5.01691 38.4903 1.16138
2 2.45758 35.4128 1.52294
2 4.57738 11.4144 -0.048591
2 1.95148 8.53854 0.499892
2 1.33533 14.2748 -0.530022
6 11.3356 29.8281 -0.432221
2 11.3186 33.3411 1.73265
2 8.67094 30.0432 2.47894
2 10.6338 38.8998 1.0034
2 8.20403 35.7801 1.3545
2 10.2331 12.2056 -0.0326413
2 7.84807 8.91665 0.247315
6 7.01033 14.6819 -0.621137
2 16.992 33.6613 1.91109
2 14.5486 30.4999 2.31746
2 16.6701 7.0898 1.02594
2 13.9239 36.3901 1.18351
2 16.1207 12.4369 -0.120859
2 13.3176 9.7133 0.564022
2 22.7836 34.2513 1.5449
2 20.2463 31.3896 2.34049
2 22.5731 7.38543 0.647659
2 19.7715 36.8277 1.32801
2 21.7517 13.078 -0.619427
2 19.2137 10.0386 0.311265
2 25.9867 31.8568 1.97939
2 25.6098 37.4234 1.26223
2 24.904 10.5714 0.0577337
2 0.0705355 29.9772 5.42343
2 -0.246446 33.3695 7.54313
2 -2.64663 30.084 8.24228
2 28.8201 32.5469 4.91318
2 -0.557322 35.5503 4.24425
2 -0.638441 6.54802 6.80098
2 28.465 35.9729 7.21461
2 28.4554 38.2493 3.83939
2 -0.928474 8.7692 3.52993
2 -1.25564 12.2434 5.72148
2 28.1574 9.22344 6.23584
2 27.8971 11.4305 2.9746
2 -1.43688 14.5559 2.2775
2 -1.54622 17.945 4.7801
2 27.5528 14.7872 5.31683
2 27.2795 17.0992 2.01433
2 -1.91491 20.0883 1.42536
2 -2.26011 23.5217 3.64003
2 26.8923 20.1435 4.25007
2 26.7453 22.5656 1.05187
2 -2.32982 25.7242 0.0963283
2 26.4659 25.9863 3.10536
2 5.71958 30.511 5.51506
2 5.44368 33.7064 7.73033
2 3.12679 30.6959 8.24201
2 2.72415 33.0785 4.73166
2 5.20163 36.0043 4.30703
2 5.0152 6.88748 6.85242
2 2.47293 36.112 7.42479
2 2.36292 38.6305 3.98424
2 4.65695 8.98836 3.44807
2 4.47882 12.4363 5.73668
2 2.08046 9.61132 6.42968
2 1.70081 11.9 2.9493
2 4.13712 14.7548 2.17367
2 4.00838 18.2964 4.54119
2 1.38922 15.2911 5.10348
2 1.21001 17.5828 1.74786
2 3.92911 20.6137 1.46064
2 3.45028 23.9344 3.55699
2 0.863456 20.9814 4.19598
2 0.815284 23.1144 0.613713
2 3.13878 26.5514 0.373366
2 0.29931 26.7297 3.14731
2 11.6933 30.9605 5.38124
2 11.3018 34.0963 7.54496
2 8.81074 31.1609 8.28303
2 8.37287 33.5173 4.83444
2 11.1999 36.5474 4.44345
2 10.7201 7.45545 6.60527
2 8.04569 36.7588 7.09056
2 7.82167 6.70221 3.94445
2 10.5119 9.79088 3.44594
2 10.2574 13.0413 5.64224
2 7.45564 10.0043 6.16628
2 7.38383 12.2633 2.60466
2 9.75303 15.4803 2.54902
2 9.65754 18.8032 4.69466
2 7.08524 15.6196 5.05046
2 6.95687 18.089 1.52186
2 9.71493 21.2014 1.25615
2 9.42036 24.6696 3.55221
2 6.83094 21.4006 4.35727
2 6.42888 23.9458 0.718316
2 9.03419 26.9129 0.0771277
2 5.96405 26.9662 3.09162
2 17.3306 31.2217 5.23502
2 17.1948 34.7659 7.38705
2 14.5808 31.5413 8.10029
2 14.0593 33.9471 4.69504
2 16.8346 37.012 4.31186
2 16.5993 8.02547 6.4502
2 14.1399 37.1209 7.19269
2 13.5857 7.11823 3.71663
2 16.1251 10.229 3.56185
2 15.9792 13.6343 5.67656
2 13.4961 10.5663 6.26211
2 13.0607 12.9558 2.81583
2 15.6142 16.0175 2.40031
2 15.4564 19.3974 4.65018
2 12.8088 16.1071 5.15905
2 12.6367 18.6624 1.86414
2 15.3217 21.7756 1.28302
2 15.1567 25.0916 3.4531
2 12.4497 21.9688 4.16023
2 12.1708 24.2985 0.688255
2 14.9057 27.2094 -0.277001
2 11.8391 27.5995 3.02857
2 22.9131 32.0543 5.1817
2 22.8909 35.4521 7.39696
2 20.228 32.3412 7.96602
2 19.9279 34.6078 4.61249
2 22.6603 37.6622 3.88278
2 22.3933 8.76147 6.37521
2 19.7274 37.8973 7.03885
2 19.506 7.79927 3.75317
2 22.0991 11.0225 2.83191
2 21.5522 14.1162 5.27654
2 19.1342 11.1389 5.98541
2 18.7162 13.518 2.4499
2 21.4841 16.5812 2.06979
2 21.2548 19.702 4.42301
2 18.467 16.8082 4.97045
2 18.3596 19.1064 1.68531
2 21.0956 22.1945 1.06974
2 21.013 25.4862 3.36712
2 18.4453 22.3581 3.86916
2 17.9343 24.7239 0.594764
2 20.6871 27.7039 -0.0164668
2 17.6256 28.0251 2.79331
2 25.9494 32.7059 7.95013
2 25.804 35.049 4.29708
2 25.4838 38.4585 6.87482
2 25.2501 8.24604 3.31427
2 24.9913 11.7053 5.57265
2 24.6356 14.0396 2.10902
2 24.3697 17.1233 4.77809
2 23.9933 19.589 1.46487
2 24.0006 22.8417 3.94964
2 23.6971 25.1184 0.524771
2 26.3279 28.1388 -0.18135
2 23.4502 28.5291 2.72701
2 0.192287 30.9427 11.1056
2 -0.230114 34.1666 13.3923
2 29.2427 31.128 13.7824
2 28.8749 33.5309 10.5612
2 -0.42445 36.5489 10.2601
2 -0.53367 7.32249 12.5495
2 28.65 36.8174 13.285
2 28.3773 6.69404 9.88641
2 -1.1453 9.61567 9.16196
2 -1.27604 12.9585 11.3232
2 28.0826 9.82931 12.1083
2 27.9274 12.3821 8.69705
2 -1.51422 15.5117 7.93302
2 -1.88624 18.5242 10.4288
2 27.6163 15.5617 10.9446
2 27.2827 18.085 7.71784
2 -2.11453 21.3462 7.08024
2 -2.43867 24.6128 9.51832